
   OpenMP run-time library returned nthreads = 11
 operating system is Windows !

 rdgrad (MIKEPC) : TURBOMOLE V7-7 03 DEC 2022 at 12:13:15 compiled  Apr 2022
 Copyright (C) 2022 TURBOMOLE GmbH, Karlsruhe


    2025-03-04 13:19:01.017 



                                 r d g r a d

                          gradient for ridft program 

                        by K.Eichkorn, O.Treutler, H.Oehm, 
                             M.Haeser and R.Ahlrichs
                  (Chemical Physics Letters 242 (1995) 652-660)
                    parallel version: M.v.Arnim  &  R.Ahlrichs
                            quantum chemistry group
                             university  karlsruhe
                                   germany




                          References             
                                                 
          Density Functional:                              
              O. Treutler and R. Ahlrichs                      
              Efficient Molecular Numerical Integration Schemes
              J. Chem. Phys. 102: 346 (1995)                   
          Parallel Version:                                
              Performance of parallel TURBOMOLE for Density    
              Functional Calculations                          
              M. v. Arnim and R. Ahlrichs                      
              J. Comp. Chem. 19: 1746 (1998)                   
          RI-J Method:                                     
              Auxiliary Basis Sets to approximate Coulomb      
              Potentials                                       
              Chem. Phys. Lett. 240: 283 (1995)                
              K. Eichkorn, O. Treutler, H. Oehm, M. Haeser     
              and R. Ahlrichs                                  
              Chem. Phys. Lett. 242: 652 (1995)                
                                                           
              Auxiliary Basis Sets for Main Row Atoms and their
              Use to approximate Coulomb Potentials            
              K. Eichkorn, F. Weigend, O. Treutler and         
              R. Ahlrichs                                      
              Theo. Chem. Acc. 97: 119 (1997)                  
          Relativistic Two-component ECP formalism             
              Efficient two-component self-consistent field    
              procedures and gradients: implementation in      
              TURBOMOLE and application to Au20-               
              A. Baldes and F. Weigend                         
              Mol. Phys. 111: 2617 (2013)                      
          Relativistic all-electron 2c calculations (X2C, DLU) 
              Efficient implementation of one- and two-component
              analytical energy gradients in exact two-component
              theory                                           
              Y. J. Franzke, N. Middendorf and F. Weigend      
              J. Chem. Phys. 148: 104110 (2018)                
          Exploitation of symmetry in scalar X2C response      
              NMR shielding tensors and chemical shifts in     
              scalar-relativistic local exact two-component    
              theory                                           
              Y. J. Franzke and F. Weigend                     
              J. Chem. Theory Comput. 15: 1028 (2019)          
                                                              





          OpenMP Shared-Memory Parallelization: 11 CPUs.

            By: Yannick J. Franzke and Christof Holzer
 

   *************************************************************************
   W                                                                        
   *************************************************************************



 integral neglect threshold       :  0.10E-11
 integral storage threshold THIZE :  0.10E-04
 integral storage threshold THIME :         5

 B-P86 functional
 exchange:    LDA + Becke (B88)
 correlation: LDA (VWN) + Perdew (P86)
 A DFT gradient calculation using the RI-J approximation will be carried out.
  
  
 AUXILIARY BASIS SET information:

 symmetry group of the molecule :   c1 

 the group has the following generators :
   c1(z)

    1 symmetry operations found

 there are 1 real representations :   a   

 maximum number of shells which are related by symmetry :  1


    mo occupation :
   irrep   mo's   occupied
    a       31        5
 
 number of basis functions   :    31
 number of occupied orbitals :     5
 

 number of off-diagonal lagrangians expected :  0

 biggest AO integral is expected to be     7.998976882
  
           ------------------
           density functional
           ------------------
 B-P86 functional
 exchange:    LDA + Becke (B88)
 correlation: LDA (VWN) + Perdew (P86)
 iterations will be done with small grid
  
 spherical integration : Lebedev's spherical grid
 spherical gridsize    :                     3
    i.e. gridpoints    :                   302
  maximum batchsize    :                   100
 value for diffuse not defined
 radial integration    : Chebyshev 2nd kind (scaling 3)
 radial gridsize       :                     3
 integration cells     :                     3
 partition function    : becke
 partition sharpness   :                     3
  
 
 Derivatives of quadrature weights will be included
 

 Using current-dependent DFT

  
           ------------------------
             RDGRAD - INFORMATION
           ------------------------
  
 Threshold for integral neglect (rithr1): 1E-10
 Threshold for integral neglect (rithr2): 1E-10
 Contributions to RI integral batches: 
  neglected integral batches:                     0
  direct contribution:                          153
     
 
    +---------------- Multipole Accelerated RI-J ---------------+
    -------------------------------------------------------------
      Number of bins for density partition        :  8
      Maximum multipole moment used               : 14
      Multipole precision parameter               :  1.0000E-08
      Threshold for moment summation              :  1.0000E-24
      Minimum separation between boxes            :  0.0000E+00
      Maximum allowed extent                      :  2.0000E+01
    +-----------------------------------------------------------+
 
 Extensions and centers of shell-pairs:
  number of shells with a single center:      149
  number of shells with double centers:         4
 ****************************************
 Memory allocated for RDGRAD: 1 MiB
 ****************************************
                                            
     

 nuclear repulsion energy  :   9.04393090474    

  MOs are in ASCII format !


 reading orbital data $scfmo  from file mos
 orbital characterization : scfconv=9
  Deviation of MOs from orthonormality   1.192573492216076E-012

    ----------------------------------------
     S+T+V CONTRIBUTIONS TO ENERGY GRADIENT 
    ----------------------------------------
 ==============================================================================
                      COSMO switched on
 ==============================================================================

 1e-integral 1st. derivatives will be neglected if expon. factor < 0.209224E-14

COSMO: already initialized

 setting up bound for integral derivative estimation

 increment for numerical differentiation : 0.00050000

 biggest AO integral is expected to be     7.998976882
 biggest cartesian 1st derivative AO integral is expected to be    17.678530758
          Overall gridpoints after grid construction =         13765
 Ordering of quadrature gridpoints disabled.

 Integrated ground state density     :   9.999999091103804    


          ------------------------------------------------
           cartesian gradient of the energy (hartree/bohr)
          ------------------------------------------------

  ATOM      1 o           2 h           3 h 
dE/dx -0.1628774D-04  0.6275359D-05  0.1001238D-04
dE/dy -0.4336521D-04  0.2217580D-04  0.2118941D-04
dE/dz -0.1720683D-05  0.7115456D-05 -0.5394773D-05
 
 resulting FORCE  (fx,fy,fz) = (-.464D-12,0.465D-14,0.599D-13)
 resulting MOMENT (mx,my,mz) = (0.416D-04,-.364D-04,0.153D-04)


 exx =       0.000000 eyy =      -0.000004 ezz =       0.000003
 eyz =      -0.000026 exz =      -0.000001 exy =       0.000008


 **********************************************************************
  |maximum component of gradient| : 0.43365208E-04  (atom  1 o )       
   gradient norm                  : 0.57523133E-04
 **********************************************************************
   ***  cartesian gradients written onto <gradient>  ***


     --- calculation of the energy gradient finished ---



    ------------------------------------------------------------------------
         total  cpu-time :   5.56 seconds
         total wall-time :   0.88 seconds
    ------------------------------------------------------------------------

   ****  rdgrad : all done  ****


    2025-03-04 13:19:01.758 

 rdgrad ended normally
 operating system is Windows !

 statpt (MIKEPC) : TURBOMOLE V7-7 30 Aug 2022 at 10:13:15 compiled  Apr 2022
 Copyright (C) 2022 TURBOMOLE GmbH, Karlsruhe


    2025-03-04 13:19:02.220 



                           this is S T A T P T   


                     hessian and coordinate update for
                          stationary point search 

                     by barbara unterreiner, marek sierka,
                           and reinhart ahlrichs

                          quantum chemistry group
                          universitaet  karlsruhe
                                  germany




              +--------------------------------------------------+
              | Atomic coordinate, charge and isotop information |
              +--------------------------------------------------+

                    atomic coordinates            atom    charge  isotop
         -1.03798864    0.30181814    0.40679247    o      8.000     0
          0.61027209   -0.17724206   -0.25458720    h      1.000     0
         -2.03578411    0.61763717   -1.10597396    h      1.000     0
 
       center of nuclear mass  :   -1.00159468    0.29268469    0.28514758
       center of nuclear charge:   -0.97294211    0.28549403    0.18937786
  Keyword $statpt not found - using default options
 
        ***************  Stationary point options ******************
        ************************************************************
           Maximum allowed trust radius:           3.000000E-01
           Minimum allowed trust radius:           1.000000E-03
           Initial trust radius:                   1.500000E-01
           GDIIS used if gradient norm <           1.000000E-02
           Number of previous steps for GDIIS:       5
           Hessian update method:                  BFGS
                        *** Convergence criteria ***                
           Threshold for energy change:            1.000000E-09
           Threshold for max displacement element: 1.000000E-03
           Threshold for max gradient element :    1.000000E-05
           Threshold for RMS of displacement:      5.000000E-04
           Threshold for RMS of gradient:          5.000000E-04
        ************************************************************
 

  Keyword $statp missing in file <control>

  Keyword $statpt not found - using default options
     Number of symmetry restricted degrees of freedom:     9
     Constituted by:     3 translational degrees of freedom
                         3 rotational degrees of freedom
                         3 internal degrees of freedom

  *************************************************************************
   ATOM                      CARTESIAN COORDINATES
    1 o      -1.03798863732067      0.30181814442536      0.40679247318191
    2 h       0.61027209393197     -0.17724206404224     -0.25458720393448
    3 h      -2.03578410937407      0.61763716689356     -1.10597395768282
  *************************************************************************
   ATOM                      CARTESIAN GRADIENTS  
    1 o      -0.00001628773950     -0.00004336520819     -0.00000172068299
    2 h       0.00000627535878      0.00002217579992      0.00000711545592
    3 h       0.00001001238027      0.00002118940828     -0.00000539477287
  *************************************************************************

  norm of actual CARTESIAN gradient:  5.75231E-05
  norm of actual INTERNAL  gradient:  9.25005E-08

  ENERGY =     -76.4781189152 a.u.; # of cycle =    7

  Approximate Hessian read from $hessapprox data section

  Hessian updated according to BFGS formula
  Number of zero Hessian eigenvalues:   0
  FIRST criterion done:    6929392952692.16                          3
  Number of structures for GDIIS interpolation:    3
  GDIIS step:     0.000000

  Transforming internal coordinate displacements to Cartesian space
      Iteration   1 residual norm     4.060214E-07
      Iteration   2 residual norm     5.071617E-14
      Transformation converged
      Residual norm:    5.071617E-14 after    2 iterations

      ****************************************************************** 
                          CONVERGENCE INFORMATION

                               Converged?     Value      Criterion
             Energy change         yes      0.0000000   0.0000000
             RMS of displacement   yes      0.0000002   0.0005000
             RMS of gradient       yes      0.0000001   0.0005000
             MAX displacement      yes      0.0000004   0.0010000
             MAX gradient          yes      0.0000001   0.0000100
      ****************************************************************** 


    ------------------------------------------------------------------------
         total  cpu-time :   0.08 seconds
         total wall-time :   1.64 seconds
    ------------------------------------------------------------------------

   ****  statpt : all done  ****


    2025-03-04 13:19:03.689 

  statpt ended normally

   OpenMP run-time library returned nthreads = 11
 operating system is Windows !

 ridft (MIKEPC) : TURBOMOLE V7-7 03 DEC 2022 at 12:13:15 compiled  Apr 2022
 Copyright (C) 2022 TURBOMOLE GmbH, Karlsruhe


    2025-03-04 13:19:03.958 



                                  r i d f t

                        DFT program with RI approximation 
                                for coulomb part 




                                                 
                                 References:     
                                                 
          TURBOMOLE:                             
              R. Ahlrichs, M. Baer, M. Haeser, H. Horn, and
              C. Koelmel
              Electronic structure calculations on workstation
              computers: the program system TURBOMOLE
              Chem. Phys. Lett. 162: 165 (1989)
          Density Functional:                              
              O. Treutler and R. Ahlrichs                      
              Efficient Molecular Numerical Integration Schemes
              J. Chem. Phys. 102: 346 (1995)                   
          Parallel Version:                                
              Performance of parallel TURBOMOLE for Density    
              Functional Calculations                          
              M. v. Arnim and R. Ahlrichs                      
              J. Comp. Chem. 19: 1746 (1998)                   
          RI-J Method:                                     
              Auxiliary Basis Sets to approximate Coulomb      
              Potentials                                       
              Chem. Phys. Lett. 240: 283 (1995)                
              K. Eichkorn, O. Treutler, H. Oehm, M. Haeser     
              and R. Ahlrichs                                  
              Chem. Phys. Lett. 242: 652 (1995)                
                                                           
              Auxiliary Basis Sets for Main Row Atoms and their
              Use to approximate Coulomb Potentials            
              K. Eichkorn, F. Weigend, O. Treutler and         
              R. Ahlrichs                                      
              Theo. Chem. Acc. 97: 119 (1997)                   
                                                           
              Accurate Coulomb-fitting basis sets for H to Rn 
              F. Weigend                                        
              Phys. Chem. Chem. Phys. 8: 1057 (2006)            
                                                           
          Multipole accelerated RI-J (MARI-J):             
              Fast evaluation of the Coulomb potential for     
              electron densities using multipole accelerated   
              resolution of identity approximation             
              M. Sierka, A. Hogekamp and R. Ahlrichs           
              J. Chem. Phys. 118: 9136 (2003)                  
          RI-JK Method:                                     
              A fully direct RI-HF algorithm: Implementation,
              optimised auxiliary basis sets, demonstration of
              accuracy and efficiency                         
              F. Weigend                                      
              Phys. Chem. Chem. Phys. 4: 4285 (2002)           
          Two-component HF and DFT with spin-orbit coupling:  
              Self-consistent treatment of spin-orbit         
              interactions with efficient Hartree-Fock and    
              density functional methods                      
              M. K. Armbruster, F. Weigend, C. van Wüllen and 
              W. Klopper                                      
              Phys. Chem. Chem. Phys. 10: 1748 (2008)         
          Two-component difference density and DIIS algorithm 
              Efficient two-component self-consistent field   
              procedures and gradients: implementation in     
              TURBOMOLE and application to Au20-              
              A. Baldes, F. Weigend                           
              Mol. Phys. 111: 2617 (2013)                     
          Relativistic all-electron 2c calculations           
              An efficient implementation of two-component    
              relativistic exact-decoupling methods for large 
              molecules                                       
              D. Peng, N. Middendorf, F. Weigend, M. Reiher   
              J. Chem. Phys. 138: 184105 (2013)               
          Finite nucleus model and SNSO approximation         
              Efficient implementation of one- and two-       
              component analytical energy gradients in exact  
              two-component theory                            
              Y. J. Franzke, N. Middendorf, F. Weigend        
              J. Chem. Phys. 148: 104110 (2018)               
          Grids for all-electron relativistic methods         
              Error-consistent segmented contracted all-      
              electron relativistic basis sets of double-     
              and triple-zeta quality for NMR shielding       
              constants                                       
              Y. J. Franzke, R. Tress, T. M. Pazdera,         
              F. Weigend                                      
              Phys. Chem. Chem. Phys. 21: 166658 (2019)       
          Seminumerical exchange algorithms                   
              Seminumerical calculation of the Hartree-Fock   
              exchange matirx: Application to two-component   
              procedures and efficient evaluation of local    
              hybrid functionsl                               
               P. Plessow, F. Weigend,                        
              J. Comput. Chem. 33: 810 (2012)                 
          Improved seminumerical algorithms                   
              C. Holzer,                                      
              J. Chem. Phys. 153 (2020), 184115               
                                         





          OpenMP Shared-Memory Parallelization: 11 CPUs.

            By: Christof Holzer and Yannick J. Franzke


              +--------------------------------------------------+
              |      general information about current run       |
              +--------------------------------------------------+

 
 B-P86 functional
 exchange:    LDA + Becke (B88)
 correlation: LDA (VWN) + Perdew (P86)
 A DFT calculation using the RI-J approximation will be carried out.
 Allocatable memory for RI due to $ricore (MB):                 10000
 Multipole approximation for Coulomb integrals is used

   *************************************************************************
   W                                                                        
   *************************************************************************




              +--------------------------------------------------+
              | Atomic coordinate, charge and isotop information |
              +--------------------------------------------------+

                    atomic coordinates            atom    charge  isotop
         -1.03798866    0.30181815    0.40679269    o      8.000     0
          0.61027195   -0.17724202   -0.25458734    h      1.000     0
         -2.03578395    0.61763712   -1.10597404    h      1.000     0
 
       center of nuclear mass  :   -1.00159470    0.29268470    0.28514776
       center of nuclear charge:   -0.97294213    0.28549403    0.18937801

              +--------------------------------------------------+
              |               basis set information              |
              +--------------------------------------------------+

              we will work with the 1s 3p 5d 7f 9g ... basis set
              ...i.e. with spherical basis functions...

   type   atoms  prim   cont   basis
   ---------------------------------------------------------------------------
    o        1     34     19   def-TZVP   [5s3p1d|11s6p1d]
    h        2      8      6   def-TZVP   [3s1p|5s1p]
   ---------------------------------------------------------------------------
   total:    3     50     31
   ---------------------------------------------------------------------------

   total number of primitive shells          :   24
   total number of contracted shells         :   17
   total number of cartesian basis functions :   32
   total number of SCF-basis functions       :   31


 integral neglect threshold       :  0.10E-11
 integral storage threshold THIZE :  0.10E-04
 integral storage threshold THIME :         5

 RI-J AUXILIARY BASIS SET information:

              we will work with the 1s 3p 5d 7f 9g ... basis set
              ...i.e. with spherical basis functions...

   type   atoms  prim   cont   basis
   ---------------------------------------------------------------------------
    o        1     40     38   def-TZVP   [7s3p3d1f|9s3p3d1f]
    h        2     10      9   def-TZVP   [3s2p|4s2p]
   ---------------------------------------------------------------------------
   total:    3     60     56
   ---------------------------------------------------------------------------

   total number of primitive shells          :   22
   total number of contracted shells         :   24
   total number of cartesian basis functions :   62
   total number of SCF-basis functions       :   56


 symmetry group of the molecule :   c1 

 the group has the following generators :
   c1(z)

    1 symmetry operations found

 there are 1 real representations :   a   

 maximum number of shells which are related by symmetry :  1

 ==============================================================================
                      COSMO switched on
 ==============================================================================
 COSMO stati: segments per atom: H   32 other atoms   92
 COSMO statistics: nps    136 npspher:     92
 COSMO surface:
   number of segments:  136
   area (bohr**2):      153.806373
   volume (bohr**3):    172.743527
 COSMO: check number of disjunct cavities:

       ... OK contiguous cavity found
  
           ------------------
           density functional
           ------------------
 B-P86 functional
 exchange:    LDA + Becke (B88)
 correlation: LDA (VWN) + Perdew (P86)
 iterations will be done with small grid
  
 spherical integration : Lebedev's spherical grid
 spherical gridsize    :                     3
    i.e. gridpoints    :                   302
  maximum batchsize    :                   100
 value for diffuse not defined
 radial integration    : Chebyshev 2nd kind (scaling 3)
 radial gridsize       :                     3
 integration cells     :                     3
 partition function    : becke
 partition sharpness   :                     3
  
 
 Derivatives of quadrature weights will be included
 

 biggest AO integral is expected to be     7.998976882

          ------------------------
          nuclear repulsion energy  :   9.04393060591    
          ------------------------


         -----------------
         -S,T+V- integrals
         -----------------

 1e-integrals will be neglected if expon. factor < 0.104436E-12
 
 Difference densities algorithm switched on.
 The maximal number of linear combinations of
 difference densities is  20.

Diagonalization of Fock matrix in last SCF iteration activated ...


 DIIS switched on: error vector is FDS-SDF
 Max. Iterations for DIIS is     :   4
 DIIS matrix (see manual) 
    Scaling factor of diagonals  :  1.200
    threshold for scaling factor :  0.000

 scf convergence criterion : increment of total energy < .1000000D-08
                  and increment of one-electron energy < .1000000D-05

 MOs are in ASCII format !


    mo occupation :
   irrep   mo's   occupied
    a       31        5
 
 number of basis functions   :    31
 number of occupied orbitals :     5
 

 reading orbital data $scfmo  from file mos
 orbital characterization : scfconv=9
 mo-orthogonalization by Cholesky decomposition

 automatic virtual orbital shift switched on 
      shift if e(lumo)-e(homo) < 0.10000000    

  
           ------------------------
               RI-J - INFORMATION
           ------------------------
 
    +---------------- Multipole Accelerated RI-J ---------------+
    -------------------------------------------------------------
      Number of bins for density partition        :  8
      Maximum multipole moment used               : 14
      Multipole precision parameter               :  1.0000E-08
      Threshold for moment summation              :  1.0000E-24
      Minimum separation between boxes            :  0.0000E+00
      Maximum allowed extent                      :  2.0000E+01
    +-----------------------------------------------------------+
 
 Extensions and centers of shell-pairs:
  number of shells with a single center:      149
  number of shells with double centers:         4
 Contributions to RI integral batches: 
  neglected integral batches:                         0
  multipole/direct contribution:                      0
  multipole/memory contribution:                    153
 Memory core needed for (P|Q) and Cholesky      1 MByte
 Memory core minimum needed except of (P|Q)     1 MByte
 Total minimum memory core needed (sum)         1 MByte
  
 ****************************************
 Memory allocated for RI-J     1 MByte
 ****************************************
                                            

 DSCF restart information will be dumped onto file mos


 Starting SCF iterations

          Overall gridpoints after grid construction =          3538
 Ordering of quadrature gridpoints disabled.
 Caution, gridordering can improve performance!

 ITERATION  ENERGY          1e-ENERGY        2e-ENERGY     NORM[dD(SAO)]  TOL
   1  -76.478013182405    -122.86562214     37.343678349    0.000D+00 0.104D-11
                            Exc = -9.33410081486     Coul =  46.6777791635    
                              N = 9.9997388541    
                          Ediel =-0.148571180015E-01
                            current damping = 0.700
 
          max. resid. norm for Fia-block=  5.897D-08 for orbital      4a         
          max. resid. fock norm         =  4.780D-07 for orbital     29a         

 ITERATION  ENERGY          1e-ENERGY        2e-ENERGY     NORM[dD(SAO)]  TOL
   2  -76.478013182405    -122.86562204     37.343678251    0.112D-06 0.661D-12
                            Exc = -9.33410080292     Coul =  46.6777790543    
                              N = 9.9997388541    
                          Ediel =-0.148571171881E-01
                            current damping = 0.700
 
          Norm of current diis error: 0.10348E-06
          max. resid. norm for Fia-block=  2.490D-08 for orbital      4a         
          max. resid. fock norm         =  1.962D-07 for orbital     29a         

 ENERGY CONVERGED !

          Overall gridpoints after grid construction =         13765
 Ordering of quadrature gridpoints disabled.
 Caution, gridordering can improve performance!

 ITERATION  ENERGY          1e-ENERGY        2e-ENERGY     NORM[dD(SAO)]  TOL
   3  -76.478118915293    -122.86562214     37.343572618    0.178D-07 0.513D-12
                            Exc = -9.33420655007     Coul =  46.6777791682    
                              N = 9.9999990911    
                          Ediel =-0.148571171700E-01
                            current damping = 0.750
 
          Norm of current diis error: 0.53758E-07
          max. resid. norm for Fia-block=  1.117D-08 for orbital      3a         
          max. resid. fock norm         =  8.080D-08 for orbital     29a         

 End of SCF iterations

   convergence criteria satisfied after     3 iterations


   *************************************************************************
   W                                                                        
   *************************************************************************


                  ------------------------------------------ 
                 |  total energy      =    -76.47811891529  |
                  ------------------------------------------ 
                 :  kinetic energy    =     76.17073172227  :
                 :  potential energy  =   -152.64885063756  :
                 :  virial theorem    =      1.99598071713  :
                 :  wavefunction norm =      1.00000000000  :
                  .......................................... 


 orbitals $scfmo  will be written to file mos

    irrep                  1a          2a          3a          4a          5a   
 eigenvalues H        -18.76491    -0.92172    -0.47196    -0.34236    -0.26446
            eV        -510.6231    -25.0815    -12.8427     -9.3161     -7.1964
 occupation              2.0000      2.0000      2.0000      2.0000      2.0000

    irrep                  6a          7a          8a          9a         10a   
 eigenvalues H          0.02020     0.10015     0.32857     0.37269     0.38169
            eV           0.5497      2.7253      8.9410     10.1414     10.3863
 
 ==============================================================================
                                  COSMO RESULTS
 ==============================================================================
  PARAMETER:
    nppa:      1082
    nspa:        92
    nsph:        32
    nps:        136
    npspher:     92
    disex:   10.0000    
    disex2:  3538.50    
    rsolv [A]: 1.3000
    routf:     0.8500
    phsran:    0.0    
    ampran:   0.10E-04
    cavity:  closed
    epsilon: infinity
    refind:     1.300
    fepsi:      1.0000000
  CAVITY VOLUME/AREA [a.u.]:
    surface: V1.0, A matrix: V1.0
    area:   153.81
    volume:   172.74
  SCREENING CHARGE:
    cosmo      :  -0.012200
    correction :   0.011725
    total      :  -0.000475
  ENERGIES [a.u.]:
    Total energy            =     -76.4781189152928
    Total energy + OC corr. =      -76.4785429068
    Dielectric energy       =       -0.0148571172
    Diel. energy + OC corr. =       -0.0152811087
  ELEMENT RADIUS [A]: ATOM LIST
    o  1.72: 1
    h  1.30: 2,3
 ==============================================================================
 
 
 
 ==============================================================================
                           electrostatic moments
 ==============================================================================

 reference point for electrostatic moments:    0.00000   0.00000   0.00000

 
              nuc           elec       ->  total
 ------------------------------------------------------------------------------
                          charge      
 ------------------------------------------------------------------------------
          10.000000     -10.000000      -0.000000
 
 ------------------------------------------------------------------------------
                       dipole moment  
 ------------------------------------------------------------------------------
   x      -9.729421      10.013794       0.284372
   y       2.854940      -2.926686      -0.071746
   z       1.893780      -2.844291      -0.950511
 
   | dipole moment | =     0.9947 a.u. =     2.5284 debye 
 
 ------------------------------------------------------------------------------
                     quadrupole moment
 ------------------------------------------------------------------------------
  xx      13.136212     -17.178809      -4.042597
  yy       1.141644      -6.702216      -5.560572
  zz       2.611836      -7.538835      -4.926999
  xy      -3.871812       3.356922      -0.514890
  xz      -1.281813       2.672997       1.391184
  yz       0.344252      -0.767063      -0.422811
 
     1/3  trace=      -4.843389
     anisotropy=       2.980224
 
 ==============================================================================
 
HOMO-LUMO Separation
 HOMO         :   -0.26446011 H =     -7.19633 eV
 LUMO         :    0.02019943 H =     +0.54965 eV
 HOMO-LUMO gap:    0.28465954 H =     +7.74598 eV
 
 ==============================================================================


    ------------------------------------------------------------------------
         total  cpu-time :  15.80 seconds
         total wall-time :   3.40 seconds
    ------------------------------------------------------------------------

   ****  ridft : all done  ****


    2025-03-04 13:19:07.260 

 ridft ended normally
